{
    "iso": "iso, NA, half-life, DM, DE (MeV), DP, 1H, 99.98%, 1H is stable with 0 neutrons, 2H, 0.02%, 2H is stable with 1 neutron, 3H, trace, 12.32 y, β−, 0.01861, 3He",
    "melting_point": 13.99,
    "when_liquid_at_bp": 0.07099,
    "thermal_conductivity": 0.1805,
    "recognised_as_an_element_by": "n/a",
    "crystal_structure": "hexagonal",
    "atomic_weight": 1.008,
    "electron_configuration": "1s1",
    "atomic_number": 1,
    "triple_point": 13.8033,
    "color": "colorless",
    "named_by": "Antoine Lavoisier (1783)",
    "symbol": "H",
    "name_symbol": "hydrogen, H",
    "density_at_stp": 0.08988,
    "boiling_point": 20.271,
    "cas_number": "1333-74-0",
    "heat_of_vaporization": "(H2) 0.904 kJ/mol",
    "allotropes": "n/a",
    "p_(pa)": "vapor pressure, P (Pa), 1, 10, 100, 1 k, 10 k, 100 k, at T (K), 15, 20",
    "ionisation_energies": "n/a",
    "pronunciation": "/ˈhaɪdrədʒən/, HY-drə-jən",
    "brinell_hardness": "n/a",
    "bulk_modulus": "n/a",
    "alternative_names": "n/a",
    "density_when_liquid_at_mp": "n/a",
    "speed_of_sound_thin_rod": "n/a",
    "covalent_radius": "31±5 pm",
    "magnetic_ordering": "diamagnetic",
    "molar_volume": "n/a",
    "thermal_diffusivity": "n/a",
    "oxidation_states": "−1, +1 (an amphoteric oxide)",
    "prediction": "n/a",
    "electronegativity": "Pauling scale: 2.20",
    "van_der_waals_radius": 120,
    "ionization_energies": "1st: 1312.0 kJ/mol",
    "number": 1,
    "tensile_strength": "n/a",
    "group_block": "group 1, s-block",
    "recognized_as_a_unique_metal_by": "n/a",
    "per_shell": 1,
    "density_near_rt": "n/a",
    "molar_heat_capacity": "(H2) 28.836 J/(mol·K)",
    "element_category": "diatomic nonmetal",
    "heat_of_fusion": "(H2) 0.117 kJ/mol",
    "critical_point": 32.938,
    "period": 1,
    "speed_of_sound": 1310,
    "heat_of_vaporisation": "n/a",
    "thermal_expansion": "n/a",
    "proposed_formal_name": "n/a",
    "youngs_modulus": "n/a",
    "poisson_ratio": "n/a",
    "band_gap": "n/a",
    "at_t_(k)": "n/a",
    "sublimation_point": "n/a",
    "recognized_as_an_element_by": "n/a",
    "electrical_resistivity": "n/a",
    "when_liquid_at_mp": 0.07,
    "mohs_hardness": "n/a",
    "shear_modulus": "n/a",
    "atomic_radius": "n/a",
    "naming": "n/a",
    "discovery_and_first_isolation": "n/a",
    "recognized_as_a_distinct_element_by": "n/a",
    "first_isolation": "n/a",
    "curie_point": "n/a",
    "name": "Hydrogen",
    "discovery": "Henry Cavendish (1766)",
    "phase": "gas",
    "vickers_hardness": "n/a",
    "alternative_name": "n/a",
    "appearance": "colorless gas"
}